 Gaussian 09, Revision D.01,
 Gaussian 09:  ES64L-G09RevD.01 24-Apr-2013

 -------------------------------------------------------------
 #b3lyp/6-31+G(d) opt freq volume pop=nbo SCRF=(solvent=Water)
 -------------------------------------------------------------

 -------
 sol opt
 -------
 Symbolic Z-matrix:
 Charge =  0 Multiplicity = 1

 SCF Done:  E(RB3LYP) =  -232.259926577     A.U. after    9 cycles
 SCF Done:  E(RB3LYP) =  -232.261852977     A.U. after    9 cycles
 SCF Done:  E(RB3LYP) =  -232.261884988     A.U. after    7 cycles
 Optimization completed.
    -- Stationary point found.
 Normal termination of Gaussian 09 at Sun Dec  6 20:36:20 2020.

 ---------------------------------------------------------------------
 #N Geom=AllCheck Guess=TCheck SCRF=Check GenChk RB3LYP/6-31+G(d) Freq
 ---------------------------------------------------------------------

 Structure from the checkpoint file:  "sol.chk"
 -------
 sol opt
 -------
 Charge =  0 Multiplicity = 1

                         Standard orientation:
 ---------------------------------------------------------------------
 Center     Atomic      Atomic             Coordinates (Angstroms)
 Number     Number       Type             X           Y           Z
 ---------------------------------------------------------------------
      1          6           0       -1.332367    0.429371   -0.000011
      2          6           0       -0.294336    1.368483   -0.000007
      3          6           0        1.038025    0.939164   -0.000007
      4          6           0        1.332367   -0.429371    0.000023
      5          6           0        0.294336   -1.368483    0.000032
      6          6           0       -1.038025   -0.939164   -0.000057
      7          1           0       -2.367163    0.762839    0.000404
      8          1           0       -0.522946    2.431380   -0.000146
      9          1           0        1.844200    1.668601   -0.000031
     10          1           0        2.367163   -0.762839    0.000078
     11          1           0        0.522946   -2.431380   -0.000065
     12          1           0       -1.844201   -1.668601   -0.000076
 ---------------------------------------------------------------------

 SCF Done:  E(RB3LYP) =  -232.261884988     A.U. after    1 cycles

 The electronic state is 1-A.
 Alpha  occ. eigenvalues --  -10.20037 -10.20011 -10.20010 -10.19956 -10.19955
 Alpha  occ. eigenvalues --  -10.19929  -0.85866  -0.75132  -0.75131  -0.60769
 Alpha  occ. eigenvalues --   -0.60769  -0.52742  -0.46731  -0.44965  -0.42679
 Alpha  occ. eigenvalues --   -0.42677  -0.37310  -0.34988  -0.34986  -0.26063
 Alpha  occ. eigenvalues --   -0.26061
 Alpha virt. eigenvalues --   -0.01778  -0.01777   0.01192   0.03118   0.03120
 Alpha virt. eigenvalues --    0.05151   0.05152   0.05872   0.06994   0.08412
 Alpha virt. eigenvalues --    0.08872   0.08888   0.10476   0.12523   0.14199

 Mulliken charges:
               1
     1  C   -0.196618
     2  C   -0.196856
     3  C   -0.196835
     4  C   -0.196618
     5  C   -0.196856
     6  C   -0.196835
     7  H    0.196768
     8  H    0.196774
     9  H    0.196767
    10  H    0.196768
    11  H    0.196774
    12  H    0.196767
 Sum of Mulliken charges =   0.00000

 Dipole moment (field-independent basis, Debye):
    X=              0.0000    Y=              0.0000    Z=              0.0002  Tot=              0.0002
 Quadrupole moment (field-independent basis, Debye-Ang):
   XX=            -31.5523   YY=            -31.5500   ZZ=            -40.6286
   XY=             -0.0014   XZ=             -0.0008   YZ=              0.0002

  Exact polarizability: 106.232   0.015 106.252   0.001   0.000  54.615
 Approx polarizability: 125.617  -0.001 125.611   0.002   0.000  57.917

 Summary of Natural Population Analysis:

                                       Natural Population
                Natural  -----------------------------------------------
    Atom  No    Charge         Core      Valence    Rydberg      Total
 -----------------------------------------------------------------------
      C    1   -0.25076      1.99912     4.23536    0.01627     6.25076
      C    2   -0.25074      1.99912     4.23534    0.01628     6.25074
      C    3   -0.25082      1.99912     4.23542    0.01628     6.25082
      C    4   -0.25076      1.99912     4.23536    0.01627     6.25076
      C    5   -0.25074      1.99912     4.23534    0.01628     6.25074
      C    6   -0.25082      1.99912     4.23542    0.01628     6.25082
      H    7    0.25077      0.00000     0.74842    0.00082     0.74923
      H    8    0.25078      0.00000     0.74840    0.00082     0.74922
      H    9    0.25078      0.00000     0.74840    0.00082     0.74922
      H   10    0.25077      0.00000     0.74842    0.00082     0.74923
      H   11    0.25078      0.00000     0.74840    0.00082     0.74922
      H   12    0.25078      0.00000     0.74840    0.00082     0.74922
 =======================================================================
   * Total *    0.00000     11.99474    29.90270    0.10256    42.00000

                      1                      2                      3
                      A                      A                      A
 Frequencies --    412.0219               414.4904               619.0301
 Red. masses --      2.8853                 2.8773                 6.1086
 Frc consts  --      0.2886                 0.2913                 1.3792
 IR Inten    --      0.0001                 0.0000                 0.0000

                      4                      5                      6
                      A                      A                      A
 Frequencies --    619.2008               687.6192               710.9704
 Red. masses --      6.1060                 1.0848                 3.7495
 Frc consts  --      1.3793                 0.3022                 1.1167
 IR Inten    --      0.0000               200.6947                 0.0000

                      7                      8                      9
                      A                      A                      A
 Frequencies --    866.4043               867.1253               989.2489
 Red. masses --      1.2472                 1.2472                 1.3731
 Frc consts  --      0.5516                 0.5525                 0.7917
 IR Inten    --      0.0000                 0.0000                 0.0025

                     10                     11                     12
                      A                      A                      A
 Frequencies --    989.4512              1009.5505              1017.3360
 Red. masses --      1.3722                 6.0472                 6.5227
 Frc consts  --      0.7915                 3.6313                 3.9775
 IR Inten    --      0.0003                 0.0000                 0.0004

                     13                     14                     15
                      A                      A                      A
 Frequencies --   1020.9184              1061.1559              1061.4453
 Red. masses --      1.2363                 1.7241                 1.7275
 Frc consts  --      0.7592                 1.1439                 1.1467
 IR Inten    --      0.0000                13.9215                13.8850

                     16                     17                     18
                      A                      A                      A
 Frequencies --   1177.8994              1198.2911              1198.4275
 Red. masses --      1.0752                 1.1381                 1.1383
 Frc consts  --      0.8789                 0.9628                 0.9633
 IR Inten    --      0.0000                 0.0000                 0.0000

                     19                     20                     21
                      A                      A                      A
 Frequencies --   1349.4441              1386.0116              1519.3405
 Red. masses --      6.8740                 1.2472                 1.9842
 Frc consts  --      7.3751                 1.4117                 2.6987
 IR Inten    --      0.0001                 0.0000                 9.4106

                     22                     23                     24
                      A                      A                      A
 Frequencies --   1520.0682              1640.0142              1640.2520
 Red. masses --      1.9798                 5.2752                 5.2837
 Frc consts  --      2.6952                 8.3595                 8.3755
 IR Inten    --      9.3021                 0.0000                 0.0000

                     25                     26                     27
                      A                      A                      A
 Frequencies --   3178.4872              3186.8086              3187.1249
 Red. masses --      1.0843                 1.0877                 1.0877
 Frc consts  --      6.4541                 6.5081                 6.5094
 IR Inten    --      0.0087                 0.0000                 0.0000

                     28                     29                     30
                      A                      A                      A
 Frequencies --   3201.0188              3201.3561              3211.3969
 Red. masses --      1.0948                 1.0948                 1.0987
 Frc consts  --      6.6094                 6.6108                 6.6757
 IR Inten    --     76.4938                76.2500                 0.0000

 - Thermochemistry -
 -------------------
 Temperature   298.150 Kelvin.  Pressure   1.00000 Atm.
 Atom     1 has atomic number  6 and mass  12.00000

 Molecular mass:    78.04695 amu.
 Principal axes and moments of inertia in atomic units:
                           1         2         3
     Eigenvalues --   318.68170 318.70030 637.38199
           X            0.99999  -0.00452  -0.00001
           Y            0.00452   0.99999   0.00000
           Z            0.00001   0.00000   1.00000
 This molecule is an asymmetric top.
 Rotational symmetry number  1.
 Rotational temperatures (Kelvin)      0.27179     0.27177     0.13589
 Rotational constants (GHZ):           5.66315     5.66282     2.83149
 Zero-point vibrational energy     264027.3 (Joules/Mol)
                                   63.10403 (Kcal/Mol)
 Warning -- explicit consideration of   4 degrees of freedom as
           vibrations may cause significant error
 Vibrational temperatures:    592.81   596.36   890.65   890.89   989.33
          (Kelvin)           1022.93  1246.56  1247.60  1423.31  1423.60
                             1452.52  1463.72  1468.87  1526.76  1527.18
                             1694.73  1724.07  1724.27  1941.55  1994.16
                             2185.99  2187.04  2359.61  2359.95  4573.13
                             4585.10  4585.56  4605.55  4606.03  4620.48

 Zero-point correction=                           0.100563 (Hartree/Particle)
 Thermal correction to Energy=                    0.104959
 Thermal correction to Enthalpy=                  0.105903
 Thermal correction to Gibbs Free Energy=         0.073090
 Sum of electronic and zero-point Energies=           -232.161322
 Sum of electronic and thermal Energies=              -232.156926
 Sum of electronic and thermal Enthalpies=            -232.155982
 Sum of electronic and thermal Free Energies=         -232.188795

                     E (Thermal)             CV                S
                      KCal/Mol        Cal/Mol-Kelvin    Cal/Mol-Kelvin
 Total                   65.863             17.171             69.061
 Electronic               0.000              0.000              0.000
 Translational            0.889              2.981             38.979
 Rotational               0.889              2.981             25.674
 Vibrational             64.085             11.209              4.408
 Vibration     1          0.776              1.444              0.920
 Vibration     2          0.778              1.439              0.911
 Vibration     3          0.979              0.992              0.418
 Vibration     4          0.979              0.991              0.418

 Optimization completed.
    -- Stationary point found.
 Normal termination of Gaussian 09 at Sun Dec  6 20:37:17 2020.
