 Gaussian 09, Revision D.01,
 Gaussian 09:  ES64L-G09RevD.01 24-Apr-2013

 -------------------------
 #b3lyp/6-31+G(d) opt freq
 -------------------------

 -------
 gas opt
 -------
 Symbolic Z-matrix:
 Charge =  0 Multiplicity = 1

 SCF Done:  E(RB3LYP) =  -232.257213345     A.U. after   10 cycles
 SCF Done:  E(RB3LYP) =  -232.258902726     A.U. after    9 cycles
 SCF Done:  E(RB3LYP) =  -232.258916899     A.U. after    7 cycles
 Optimization completed.
    -- Stationary point found.
 Normal termination of Gaussian 09 at Sun Dec  6 20:36:08 2020.

 ---------------------------------------------------------------------
 #N Geom=AllCheck Guess=TCheck SCRF=Check GenChk RB3LYP/6-31+G(d) Freq
 ---------------------------------------------------------------------

 Structure from the checkpoint file:  "gas.chk"
 -------
 gas opt
 -------
 Charge =  0 Multiplicity = 1

                         Standard orientation:
 ---------------------------------------------------------------------
 Center     Atomic      Atomic             Coordinates (Angstroms)
 Number     Number       Type             X           Y           Z
 ---------------------------------------------------------------------
      1          6           0        0.541662    1.289329   -0.000025
      2          6           0        1.387514    0.175603   -0.000005
      3          6           0        0.845837   -1.113764   -0.000006
      4          6           0       -0.541662   -1.289329    0.000020
      5          6           0       -1.387514   -0.175603    0.000056
      6          6           0       -0.845837    1.113764   -0.000083
      7          1           0        0.962762    2.291742    0.000501
      8          1           0        2.466160    0.312198   -0.000138
      9          1           0        1.503336   -1.979691   -0.000039
     10          1           0       -0.962762   -2.291743    0.000053
     11          1           0       -2.466160   -0.312198   -0.000050
     12          1           0       -1.503336    1.979691   -0.000074
 ---------------------------------------------------------------------

 SCF Done:  E(RB3LYP) =  -232.258916899     A.U. after    1 cycles

 The electronic state is 1-A.
 Alpha  occ. eigenvalues --  -10.19871 -10.19844 -10.19844 -10.19789 -10.19789
 Alpha  occ. eigenvalues --  -10.19762  -0.85673  -0.74985  -0.74983  -0.60696
 Alpha  occ. eigenvalues --   -0.60694  -0.52742  -0.46771  -0.44851  -0.42666
 Alpha  occ. eigenvalues --   -0.42663  -0.36927  -0.34974  -0.34973  -0.25709
 Alpha  occ. eigenvalues --   -0.25707
 Alpha virt. eigenvalues --   -0.01443  -0.01442   0.00891   0.02620   0.02621
 Alpha virt. eigenvalues --    0.04595   0.04596   0.06667   0.07805   0.07946
 Alpha virt. eigenvalues --    0.09213   0.09233   0.09977   0.12679   0.14268

 Mulliken charges:
               1
     1  C   -0.177950
     2  C   -0.178175
     3  C   -0.177775
     4  C   -0.177950
     5  C   -0.178175
     6  C   -0.177775
     7  H    0.177961
     8  H    0.177974
     9  H    0.177965
    10  H    0.177961
    11  H    0.177974
    12  H    0.177965
 Sum of Mulliken charges =   0.00000

 Dipole moment (field-independent basis, Debye):
    X=              0.0000    Y=              0.0000    Z=              0.0002  Tot=              0.0002
 Quadrupole moment (field-independent basis, Debye-Ang):
   XX=            -32.1979   YY=            -32.1992   ZZ=            -40.4338
   XY=              0.0003   XZ=              0.0003   YZ=              0.0010

  Exact polarizability:  78.616  -0.001  78.621   0.000  -0.001  41.002
 Approx polarizability: 125.981  -0.001 125.976  -0.001  -0.003  56.823

                      1                      2                      3
                      A                      A                      A
 Frequencies --    412.0447               412.3463               620.1255
 Red. masses --      2.8842                 2.8807                 6.0906
 Frc consts  --      0.2885                 0.2886                 1.3800
 IR Inten    --      0.0003                 0.0000                 0.0000

                      4                      5                      6
                      A                      A                      A
 Frequencies --    620.2838               689.1763               712.1203
 Red. masses --      6.0905                 1.0848                 3.7104
 Frc consts  --      1.3806                 0.3036                 1.1086
 IR Inten    --      0.0000               126.8314                 0.0000

                      7                      8                      9
                      A                      A                      A
 Frequencies --    862.6943               863.8923               980.5684
 Red. masses --      1.2474                 1.2474                 1.3729
 Frc consts  --      0.5470                 0.5485                 0.7778
 IR Inten    --      0.0000                 0.0000                 0.0000

                     10                     11                     12
                      A                      A                      A
 Frequencies --    981.4106              1014.0250              1014.2037
 Red. masses --      1.3719                 5.9774                 1.2434
 Frc consts  --      0.7786                 3.6213                 0.7536
 IR Inten    --      0.0016                 0.0000                 0.0000

                     13                     14                     15
                      A                      A                      A
 Frequencies --   1018.9637              1063.6959              1064.1222
 Red. masses --      6.5415                 1.7171                 1.7162
 Frc consts  --      4.0017                 1.1447                 1.1450
 IR Inten    --      0.0000                 5.7967                 5.8077

                     16                     17                     18
                      A                      A                      A
 Frequencies --   1183.5802              1204.5162              1204.6963
 Red. masses --      1.0821                 1.1398                 1.1402
 Frc consts  --      0.8931                 0.9743                 0.9749
 IR Inten    --      0.0001                 0.0000                 0.0000

                     19                     20                     21
                      A                      A                      A
 Frequencies --   1354.5762              1385.3214              1522.3279
 Red. masses --      6.6048                 1.2474                 1.9944
 Frc consts  --      7.1403                 1.4105                 2.7233
 IR Inten    --      0.0001                 0.0000                 5.7343

                     22                     23                     24
                      A                      A                      A
 Frequencies --   1522.7836              1645.2484              1645.6090
 Red. masses --      1.9948                 5.2504                 5.2610
 Frc consts  --      2.7254                 8.3735                 8.3940
 IR Inten    --      5.6982                 0.0000                 0.0000

                     25                     26                     27
                      A                      A                      A
 Frequencies --   3173.8471              3183.4013              3183.6622
 Red. masses --      1.0838                 1.0876                 1.0876
 Frc consts  --      6.4322                 6.4938                 6.4949
 IR Inten    --      0.0024                 0.0000                 0.0000

                     28                     29                     30
                      A                      A                      A
 Frequencies --   3199.0952              3199.3356              3209.2470
 Red. masses --      1.0947                 1.0947                 1.0988
 Frc consts  --      6.6008                 6.6017                 6.6675
 IR Inten    --     49.4419                49.4691                 0.0000

 - Thermochemistry -
 -------------------
 Temperature   298.150 Kelvin.  Pressure   1.00000 Atm.
 Atom     1 has atomic number  6 and mass  12.00000

 Molecular mass:    78.04695 amu.
 Principal axes and moments of inertia in atomic units:
                           1         2         3
     Eigenvalues --   318.14881 318.18046 636.32927
           X            0.99909   0.04272   0.00000
           Y           -0.04272   0.99909   0.00001
           Z            0.00000  -0.00001   1.00000
 This molecule is an asymmetric top.
 Rotational symmetry number  1.
 Rotational temperatures (Kelvin)      0.27224     0.27222     0.13611
 Rotational constants (GHZ):           5.67263     5.67207     2.83618
 Zero-point vibrational energy     264057.2 (Joules/Mol)
                                   63.11119 (Kcal/Mol)
 Warning -- explicit consideration of   4 degrees of freedom as
           vibrations may cause significant error
 Vibrational temperatures:    592.84   593.27   892.22   892.45   991.57
          (Kelvin)           1024.58  1241.22  1242.95  1410.82  1412.03
                             1458.95  1459.21  1466.06  1530.42  1531.03
                             1702.91  1733.03  1733.29  1948.93  1993.17
                             2190.29  2190.94  2367.14  2367.66  4566.45
                             4580.20  4580.57  4602.78  4603.12  4617.38

 Zero-point correction=                           0.100574 (Hartree/Particle)
 Thermal correction to Energy=                    0.104972
 Thermal correction to Enthalpy=                  0.105916
 Thermal correction to Gibbs Free Energy=         0.073102
 Sum of electronic and zero-point Energies=           -232.158343
 Sum of electronic and thermal Energies=              -232.153945
 Sum of electronic and thermal Enthalpies=            -232.153001
 Sum of electronic and thermal Free Energies=         -232.185815

                     E (Thermal)             CV                S
                      KCal/Mol        Cal/Mol-Kelvin    Cal/Mol-Kelvin
 Total                   65.871             17.173             69.063
 Electronic               0.000              0.000              0.000
 Translational            0.889              2.981             38.979
 Rotational               0.889              2.981             25.669
 Vibrational             64.093             11.212              4.415
 Vibration     1          0.776              1.444              0.919
 Vibration     2          0.776              1.443              0.918
 Vibration     3          0.980              0.989              0.416
 Vibration     4          0.980              0.989              0.416

 Optimization completed.
    -- Stationary point found.
 Normal termination of Gaussian 09 at Sun Dec  6 20:36:58 2020.
